# vtk DataFile Version 3.0
20 Cells
ASCII
DATASET UNSTRUCTURED_GRID
POINTS 120 FLOAT
12.1200553287 -15.4762756744 -14.8639341141
-17.0361233496 9.80720914115 -13.0285941855
-15.0053147005 -12.6984794626 -30.2428376243
19.6573104029 -0.0315855077693 -26.1110889694
-19.1110270815 4.60211840455 -49.192712928
2.30760517796 19.5214192175 -36.1771397155
-16.2194576963 -11.1058562011 -14.4400853503
19.6216610171 1.18375202333 -6.65343086377
18.6557286951 -6.19472652969 -16.5498051069
-18.8225642638 -5.66762070515 -48.1534889441
-11.808383699 -15.7153722303 -23.755913643
19.1231605993 4.55143698366 -28.6933035821
13.530421422 14.2596825373 -5.91416925711
-10.6446433193 16.5258106768 -7.081868378
13.5523308992 -14.2388615106 -49.8337869206
-0.359765198098 19.6540433225 -34.8384438426
-19.3636608364 -3.38518669124 -22.6830245172
5.60855823462 -18.8402474625 -34.8051274008
-19.3281040922 3.58263061456 -46.2566110941
5.64471004817 -18.8294476391 -37.9908475
12.0367146784 -15.5411823769 0.509738136688
-17.2789785429 9.37271307762 3.02099673657
-15.0228955765 -12.677675592 -14.3316229141
19.6556628853 0.256449720704 -10.0383863464
-19.1441260439 4.46243072063 -33.9277397073
1.97571457598 19.5577964463 -21.733974101
-16.0644217774 -11.328954183 3.4312192754
19.6003984832 1.49506829919 9.15293176942
18.7273712994 -5.97464761612 -3.34438310532
-18.7858079667 -5.78828722153 -33.0178477982
-11.700913378 -15.7955524133 -8.39514208819
19.0642462152 4.79221933616 -14.6111343926
13.2848757839 14.4887171733 8.96317594825
-10.8863712022 16.3675829605 5.0673998593
13.8037694345 -13.9952420244 -35.278929957
-0.561151279105 19.649324649 -21.9815833757
-19.355687518 -3.43048256478 -5.10201174313
4.70391311971 -19.0862267429 -17.067863832
-19.3860545182 3.25449537382 -33.8555361552
5.56839811905 -18.8521561713 -25.0443247916
12.0214227244 -15.5530140359 15.45443151
-17.576257121 8.80261526694 18.3436431722
-14.998751795 -12.7062305391 -1.23654521023
19.6573130423 0.0298977999322 6.26528723116
-19.2479410091 3.99094184748 -20.1418584375
1.74803281875 19.5794594202 -8.6308662701
-15.9023064476 -11.5554099697 20.6852403571
19.5774659223 1.77021975536 26.7977026015
18.8432955135 -5.5983090403 13.4034062996
-18.8833653415 -5.46162643355 -15.54622864
-11.6712356193 -15.8174937661 5.2608717436
18.9642452467 5.17380441679 2.59565060734
13.0612751999 14.6906072057 21.6195862369
-10.7593403445 16.4513660609 22.3032771668
14.247530134 -13.5432173062 -21.2905386419
-1.10290770174 19.6263711501 -6.88620336086
-19.2543818353 -3.95975126235 7.72186923608
5.02683603096 -19.0037304085 -2.15109907265
-19.4007174225 3.16591430939 -19.9134624721
5.41505452935 -18.8967731204 -8.97328519027
27.2735086871 -4.46754549209 476.411441374
17.0319843883 -21.7649890104 477.634188234
3.77068886645 27.3785526334 479.362937302
-18.0712396554 -20.9101299887 459.337551739
9.79057222155 25.8446887078 470.306277571
-0.0614691300941 -27.6369220496 487.931204597
-6.78046270153 -26.7923228627 471.387856142
27.4852703823 -2.89191127793 493.530475953
-23.2849928865 -14.8866498953 471.922798051
5.53416918014 27.077226784 471.595667686
8.00736646022 26.4515655718 459.744771122
-15.3660797128 -22.9714351552 489.188439949
-26.1510665429 -8.94007592217 470.21776702
8.02140250186 -26.4473125427 466.746194233
-0.987669656152 -27.6193364779 456.370110231
16.248205575 22.3561860437 459.208711621
-6.60369944515 -26.8364377753 487.87768401
17.137935071 -21.6816609219 463.895257934
23.3465247867 -14.7899634622 487.845399729
-27.6034814549 -1.36053312931 461.577671753
27.315820158 -4.20109603852 490.510528276
16.956474419 -21.8238679914 492.363578868
3.82930003462 27.3704165126 491.845359704
-17.5306383384 -21.3653916013 471.779197362
9.56844857803 25.9277463471 482.840098075
0.303223328444 -27.6353269284 501.581036336
-7.14536568846 -26.6973217384 485.172676482
27.5259787847 -2.47461729768 505.842663212
-23.0582123456 -15.2355532309 486.453953893
5.36777467449 27.1107033083 489.012851515
8.07534695414 26.4308912146 475.998637644
-15.2374511928 -23.0569581683 501.894714763
-26.2038784557 -8.78407608714 486.010181121
8.02140250186 -26.4473125427 483.637823336
-0.437112568021 -27.633533459 472.467822551
16.6518921085 22.0571468698 473.446572152
-6.89758452948 -26.7624095792 505.474256087
17.1045404578 -21.7080154449 478.684470657
23.4444012155 -14.6343189277 504.160433531
-27.5990990092 -1.44671099686 476.756480405
27.2669428561 -4.50744563026 505.100431512
17.0687760074 -21.7361478749 505.699170145
3.68994339243 27.3895519603 505.992772682
-17.1824753888 -21.6463802595 484.660236534
9.18077060701 26.0675409252 495.633027228
0.72431247374 -27.627497358 517.571527277
-6.76564133581 -26.7960694159 499.878664288
27.5837091755 -1.71529208832 521.621321297
-22.7647150395 -15.6707047703 500.321883285
4.58520286817 27.2539750034 503.526997898
7.79853674374 26.513884353 489.14190769
-14.9667977192 -23.2335577314 516.424957626
-26.054523404 -9.21764877936 502.042803018
8.50813133337 -26.2947702033 496.602870908
0.514814766558 -27.6321950736 486.283056396
16.3197411271 22.3040195564 490.096352014
-6.14907355583 -26.9442411887 518.180000992
17.854974342 -21.0950972995 494.50901548
23.6932027762 -14.2279788106 519.004282529
-27.5651696436 -1.99114573738 490.555582667
CELLS 120 360
2 0 0
2 1 1
2 2 2
2 3 3
2 4 4
2 5 5
2 6 6
2 7 7
2 8 8
2 9 9
2 10 10
2 11 11
2 12 12
2 13 13
2 14 14
2 15 15
2 16 16
2 17 17
2 18 18
2 19 19
2 20 0
2 21 1
2 22 2
2 23 3
2 24 4
2 25 5
2 26 6
2 27 7
2 28 8
2 29 9
2 30 10
2 31 11
2 32 12
2 33 13
2 34 14
2 35 15
2 36 16
2 37 17
2 38 18
2 39 19
2 40 20
2 41 21
2 42 22
2 43 23
2 44 24
2 45 25
2 46 26
2 47 27
2 48 28
2 49 29
2 50 30
2 51 31
2 52 32
2 53 33
2 54 34
2 55 35
2 56 36
2 57 37
2 58 38
2 59 39
2 60 60
2 61 61
2 62 62
2 63 63
2 64 64
2 65 65
2 66 66
2 67 67
2 68 68
2 69 69
2 70 70
2 71 71
2 72 72
2 73 73
2 74 74
2 75 75
2 76 76
2 77 77
2 78 78
2 79 79
2 80 60
2 81 61
2 82 62
2 83 63
2 84 64
2 85 65
2 86 66
2 87 67
2 88 68
2 89 69
2 90 70
2 91 71
2 92 72
2 93 73
2 94 74
2 95 75
2 96 76
2 97 77
2 98 78
2 99 79
2 100 80
2 101 81
2 102 82
2 103 83
2 104 84
2 105 85
2 106 86
2 107 87
2 108 88
2 109 89
2 110 90
2 111 91
2 112 92
2 113 93
2 114 94
2 115 95
2 116 96
2 117 97
2 118 98
2 119 99
CELL_TYPES 120
3
3
3
3
3
3
3
3
3
3
3
3
3
3
3
3
3
3
3
3
3
3
3
3
3
3
3
3
3
3
3
3
3
3
3
3
3
3
3
3
3
3
3
3
3
3
3
3
3
3
3
3
3
3
3
3
3
3
3
3
3
3
3
3
3
3
3
3
3
3
3
3
3
3
3
3
3
3
3
3
3
3
3
3
3
3
3
3
3
3
3
3
3
3
3
3
3
3
3
3
3
3
3
3
3
3
3
3
3
3
3
3
3
3
3
3
3
3
3
3
CELL_DATA 120
SCALARS cell_scalars int 1
LOOKUP_TABLE default
0
0
0
0
0
0
0
0
0
0
0
0
0
0
0
0
0
0
0
0
0
0
0
0
0
0
0
0
0
0
0
0
0
0
0
0
0
0
0
0
0
0
0
0
0
0
0
0
0
0
0
0
0
0
0
0
0
0
0
0
1
1
1
1
1
1
1
1
1
1
1
1
1
1
1
1
1
1
1
1
1
1
1
1
1
1
1
1
1
1
1
1
1
1
1
1
1
1
1
1
1
1
1
1
1
1
1
1
1
1
1
1
1
1
1
1
1
1
1
1
