# vtk DataFile Version 3.0
20 Cells
ASCII
DATASET UNSTRUCTURED_GRID
POINTS 40 FLOAT
12.1200553287 -15.4762756744 -14.8639341141
-17.0361233496 9.80720914115 -13.0285941855
-15.0053147005 -12.6984794626 -30.2428376243
19.6573104029 -0.0315855077693 -26.1110889694
-19.1110270815 4.60211840455 -49.192712928
2.30760517796 19.5214192175 -36.1771397155
-16.2194576963 -11.1058562011 -14.4400853503
19.6216610171 1.18375202333 -6.65343086377
18.6557286951 -6.19472652969 -16.5498051069
-18.8225642638 -5.66762070515 -48.1534889441
-11.808383699 -15.7153722303 -23.755913643
19.1231605993 4.55143698366 -28.6933035821
13.530421422 14.2596825373 -5.91416925711
-10.6446433193 16.5258106768 -7.081868378
13.5523308992 -14.2388615106 -49.8337869206
-0.359765198098 19.6540433225 -34.8384438426
-19.3636608364 -3.38518669124 -22.6830245172
5.60855823462 -18.8402474625 -34.8051274008
-19.3281040922 3.58263061456 -46.2566110941
5.64471004817 -18.8294476391 -37.9908475
27.2735086871 -4.46754549209 476.411441374
17.0319843883 -21.7649890104 477.634188234
3.77068886645 27.3785526334 479.362937302
-18.0712396554 -20.9101299887 459.337551739
9.79057222155 25.8446887078 470.306277571
-0.0614691300941 -27.6369220496 487.931204597
-6.78046270153 -26.7923228627 471.387856142
27.4852703823 -2.89191127793 493.530475953
-23.2849928865 -14.8866498953 471.922798051
5.53416918014 27.077226784 471.595667686
8.00736646022 26.4515655718 459.744771122
-15.3660797128 -22.9714351552 489.188439949
-26.1510665429 -8.94007592217 470.21776702
8.02140250186 -26.4473125427 466.746194233
-0.987669656152 -27.6193364779 456.370110231
16.248205575 22.3561860437 459.208711621
-6.60369944515 -26.8364377753 487.87768401
17.137935071 -21.6816609219 463.895257934
23.3465247867 -14.7899634622 487.845399729
-27.6034814549 -1.36053312931 461.577671753
CELLS 40 120
2 0 0
2 1 1
2 2 2
2 3 3
2 4 4
2 5 5
2 6 6
2 7 7
2 8 8
2 9 9
2 10 10
2 11 11
2 12 12
2 13 13
2 14 14
2 15 15
2 16 16
2 17 17
2 18 18
2 19 19
2 20 20
2 21 21
2 22 22
2 23 23
2 24 24
2 25 25
2 26 26
2 27 27
2 28 28
2 29 29
2 30 30
2 31 31
2 32 32
2 33 33
2 34 34
2 35 35
2 36 36
2 37 37
2 38 38
2 39 39
CELL_TYPES 40
3
3
3
3
3
3
3
3
3
3
3
3
3
3
3
3
3
3
3
3
3
3
3
3
3
3
3
3
3
3
3
3
3
3
3
3
3
3
3
3
CELL_DATA 40
SCALARS cell_scalars int 1
LOOKUP_TABLE default
0
0
0
0
0
0
0
0
0
0
0
0
0
0
0
0
0
0
0
0
1
1
1
1
1
1
1
1
1
1
1
1
1
1
1
1
1
1
1
1
