# vtk DataFile Version 3.0
20 Cells
ASCII
DATASET UNSTRUCTURED_GRID
POINTS 238 FLOAT
12.1200553287 -15.4762756744 -14.8639341141
-17.0361233496 9.80720914115 -13.0285941855
-15.0053147005 -12.6984794626 -30.2428376243
19.6573104029 -0.0315855077693 -26.1110889694
-19.1110270815 4.60211840455 -49.192712928
2.30760517796 19.5214192175 -36.1771397155
-16.2194576963 -11.1058562011 -14.4400853503
19.6216610171 1.18375202333 -6.65343086377
18.6557286951 -6.19472652969 -16.5498051069
-18.8225642638 -5.66762070515 -48.1534889441
-11.808383699 -15.7153722303 -23.755913643
19.1231605993 4.55143698366 -28.6933035821
13.530421422 14.2596825373 -5.91416925711
-10.6446433193 16.5258106768 -7.081868378
13.5523308992 -14.2388615106 -49.8337869206
-0.359765198098 19.6540433225 -34.8384438426
-19.3636608364 -3.38518669124 -22.6830245172
5.60855823462 -18.8402474625 -34.8051274008
-19.3281040922 3.58263061456 -46.2566110941
5.64471004817 -18.8294476391 -37.9908475
12.0367146784 -15.5411823769 0.509738136688
-17.2789785429 9.37271307762 3.02099673657
-15.0228955765 -12.677675592 -14.3316229141
19.6556628853 0.256449720704 -10.0383863464
-19.1441260439 4.46243072063 -33.9277397073
1.97571457598 19.5577964463 -21.733974101
-16.0644217774 -11.328954183 3.4312192754
19.6003984832 1.49506829919 9.15293176942
18.7273712994 -5.97464761612 -3.34438310532
-18.7858079667 -5.78828722153 -33.0178477982
-11.700913378 -15.7955524133 -8.39514208819
19.0642462152 4.79221933616 -14.6111343926
13.2848757839 14.4887171733 8.96317594825
-10.8863712022 16.3675829605 5.0673998593
13.8037694345 -13.9952420244 -35.278929957
-0.561151279105 19.649324649 -21.9815833757
-19.355687518 -3.43048256478 -5.10201174313
4.70391311971 -19.0862267429 -17.067863832
-19.3860545182 3.25449537382 -33.8555361552
5.56839811905 -18.8521561713 -25.0443247916
12.0214227244 -15.5530140359 15.45443151
-17.576257121 8.80261526694 18.3436431722
-14.998751795 -12.7062305391 -1.23654521023
19.6573130423 0.0298977999322 6.26528723116
-19.2479410091 3.99094184748 -20.1418584375
1.74803281875 19.5794594202 -8.6308662701
-15.9023064476 -11.5554099697 20.6852403571
19.5774659223 1.77021975536 26.7977026015
18.8432955135 -5.5983090403 13.4034062996
-18.8833653415 -5.46162643355 -15.54622864
-11.6712356193 -15.8174937661 5.2608717436
18.9642452467 5.17380441679 2.59565060734
13.0612751999 14.6906072057 21.6195862369
-10.7593403445 16.4513660609 22.3032771668
14.247530134 -13.5432173062 -21.2905386419
-1.10290770174 19.6263711501 -6.88620336086
-19.2543818353 -3.95975126235 7.72186923608
5.02683603096 -19.0037304085 -2.15109907265
-19.4007174225 3.16591430939 -19.9134624721
5.41505452935 -18.8967731204 -8.97328519027
12.2271765562 -15.3917836323 32.2214927251
-17.6657465631 8.62161517869 35.9217851847
-14.7391741 -13.0064444323 16.1290727602
19.6571780184 0.0787545259031 19.8741283103
-19.2838317512 3.81374919367 -6.75282621858
1.81386025731 19.5734708442 4.087480535
-15.8585216376 -11.6154268708 32.9843456571
19.5459510687 2.08965230132 39.5654505041
19.0105882482 -5.00083836769 29.6860338467
-18.7993823503 -5.74404675895 -2.59141993744
-11.3545706273 -16.0463259281 21.8392109058
18.9930685854 5.0669710509 19.1410516994
13.0791364156 14.6747075114 39.1152168294
-11.1463531802 16.1916540447 37.9075015402
14.571257873 -13.1942902015 -6.83726709138
-1.31245427076 19.61347276 8.78541956416
-19.1434100106 -4.4655014372 23.6096232538
5.52485296931 -18.8649635459 14.0171901932
-19.4336133714 2.95728274799 -5.54864161287
5.32620600069 -18.9220078099 4.48845619118
12.3970529327 -15.2552918198 49.7094217985
11.9158500624 -15.6340451327 48.5818514536
-17.9657437096 7.97765021061 53.083012771
-17.7366824014 8.47472402585 52.2193982545
-14.5942422534 -13.1688626301 28.5731615424
-14.8951513231 -12.8275218567 33.2269347704
19.6572739039 0.049321289816 34.4276644714
19.6523445445 0.442949010455 36.8149868203
-19.3613462592 3.39839976372 8.72117687189
-19.3462229967 3.48346173824 10.2784218884
1.37630872086 19.6090954464 18.83741282
1.57366031827 19.5942451532 20.826704259
-15.3684343813 -12.2565115179 50.090998161
-15.9019948477 -11.5558387746 48.6844532582
19.4827987623 2.61369514487 53.7883072496
19.5098617382 2.4033611627 55.8956072992
19.0783618792 -4.73571092105 44.3563212097
19.026871094 -4.93852470802 42.3388178594
-18.8625653932 -5.53303503598 11.0731791376
-18.894099708 -5.42437518463 14.6942197089
-10.8058587675 -16.420848523 39.0723660202
-11.0952470545 -16.2267169422 37.6336437137
18.9162237878 5.34671184303 32.9693055113
18.9977346552 5.04944827593 34.7341980933
13.1714495507 14.5919075742 53.9740600394
13.3035443196 14.4715776077 55.8427279205
-11.5837661798 15.8816627282 52.5656774084
-11.6107220459 15.8619665708 54.674079817
14.4778638919 -13.2967028638 10.1820111962
14.6371578965 -13.1211454772 8.99545421658
-0.949777889293 19.634377298 23.0342297951
-1.64625759847 19.5882792976 24.5963307567
-19.16240963 -4.38325302632 38.1454368857
-19.0910205645 -4.68441925177 38.6691667951
5.23701252035 -18.9468876015 28.5452260816
5.66175275496 -18.8243301518 31.087882197
-19.4569392336 2.79970812439 9.22871145471
-19.4891031618 2.56626340588 9.16214189741
5.27809781552 -18.935483447 19.3502029161
27.2735086871 -4.46754549209 476.411441374
17.0319843883 -21.7649890104 477.634188234
3.77068886645 27.3785526334 479.362937302
-18.0712396554 -20.9101299887 459.337551739
9.79057222155 25.8446887078 470.306277571
-0.0614691300941 -27.6369220496 487.931204597
-6.78046270153 -26.7923228627 471.387856142
27.4852703823 -2.89191127793 493.530475953
-23.2849928865 -14.8866498953 471.922798051
5.53416918014 27.077226784 471.595667686
8.00736646022 26.4515655718 459.744771122
-15.3660797128 -22.9714351552 489.188439949
-26.1510665429 -8.94007592217 470.21776702
8.02140250186 -26.4473125427 466.746194233
-0.987669656152 -27.6193364779 456.370110231
16.248205575 22.3561860437 459.208711621
-6.60369944515 -26.8364377753 487.87768401
17.137935071 -21.6816609219 463.895257934
23.3465247867 -14.7899634622 487.845399729
-27.6034814549 -1.36053312931 461.577671753
27.315820158 -4.20109603852 490.510528276
16.956474419 -21.8238679914 492.363578868
3.82930003462 27.3704165126 491.845359704
-17.5306383384 -21.3653916013 471.779197362
9.56844857803 25.9277463471 482.840098075
0.303223328444 -27.6353269284 501.581036336
-7.14536568846 -26.6973217384 485.172676482
27.5259787847 -2.47461729768 505.842663212
-23.0582123456 -15.2355532309 486.453953893
5.36777467449 27.1107033083 489.012851515
8.07534695414 26.4308912146 475.998637644
-15.2374511928 -23.0569581683 501.894714763
-26.2038784557 -8.78407608714 486.010181121
8.02140250186 -26.4473125427 483.637823336
-0.437112568021 -27.633533459 472.467822551
16.6518921085 22.0571468698 473.446572152
-6.89758452948 -26.7624095792 505.474256087
17.1045404578 -21.7080154449 478.684470657
23.4444012155 -14.6343189277 504.160433531
-27.5990990092 -1.44671099686 476.756480405
27.2669428561 -4.50744563026 505.100431512
17.0687760074 -21.7361478749 505.699170145
3.68994339243 27.3895519603 505.992772682
-17.1824753888 -21.6463802595 484.660236534
9.18077060701 26.0675409252 495.633027228
0.72431247374 -27.627497358 517.571527277
-6.76564133581 -26.7960694159 499.878664288
27.5837091755 -1.71529208832 521.621321297
-22.7647150395 -15.6707047703 500.321883285
4.58520286817 27.2539750034 503.526997898
7.79853674374 26.513884353 489.14190769
-14.9667977192 -23.2335577314 516.424957626
-26.054523404 -9.21764877936 502.042803018
8.50813133337 -26.2947702033 496.602870908
0.514814766558 -27.6321950736 486.283056396
16.3197411271 22.3040195564 490.096352014
-6.14907355583 -26.9442411887 518.180000992
17.854974342 -21.0950972995 494.50901548
23.6932027762 -14.2279788106 519.004282529
-27.5651696436 -1.99114573738 490.555582667
27.3851926947 -3.72215796324 522.459834401
17.5417475749 -21.3562714641 522.105407241
3.7696637632 27.3786937954 518.592117807
-17.160144755 -21.6640871216 500.480680123
9.2722655659 26.0351364526 510.504526743
0.968814158879 -27.6200043076 532.012817474
-6.26988769517 -26.9163843619 512.903533416
27.6141501067 -1.12336668598 536.451554514
-22.4290541008 -16.1474694913 517.71900645
4.52215521217 27.2645071671 516.989986749
7.5997565761 26.5715437792 501.210267702
-14.421552855 -23.5758786067 530.252067309
-25.9700773684 -9.45295299403 518.027308555
9.32352395465 -26.01682417 510.949462519
0.848813499244 -27.6239525498 501.550121213
16.0570507885 22.4938738061 505.945940309
-5.6397255244 -27.0554381749 532.541487473
18.0466093681 -20.9313909987 507.573524185
23.7697051255 -14.0997998948 534.631885557
-27.5602302818 -2.05838423118 505.415389153
27.5085730747 -2.66113626524 534.512783356
17.8992205459 -21.0575673494 538.676174893
17.4883507303 -21.4000193355 536.765459581
3.3754272116 27.4300880415 534.923215676
-16.8846974784 -21.8794476596 512.69616055
-16.3818181137 -22.2584652238 512.284167034
8.94538953439 26.1492494138 526.48477105
8.94806522066 26.1483339361 523.078879628
1.39794083787 -27.6016122761 549.037016607
1.5731061232 -27.5921832401 545.712613754
-5.50056094575 -27.0840740678 530.424586759
-5.98104800086 -26.9820366844 525.174744334
27.6120713781 -1.17335120053 552.115323054
-22.0217043875 -16.6987357216 531.504827828
-22.616181481 -15.8843184948 534.200359498
4.40104222541 27.2843190525 530.214458143
3.86856217641 27.3648947653 533.588227419
7.46910770229 26.6085638274 518.564796385
7.49168462822 26.602216078 514.057300834
-14.3205057743 -23.6373931134 545.494119153
-13.906815693 -23.8831261796 544.580370149
-25.8111344388 -9.87869312262 531.701980697
-25.7616434902 -10.0070456935 532.879456585
8.83847120163 -26.1855812547 526.439516121
0.992321738625 -27.6191697267 517.253708378
15.8512201955 22.6393917132 519.756618268
15.5403006053 22.8539339267 521.443703988
-5.67266621686 -27.0485507342 544.938945771
-5.03159108676 -27.1751049669 546.136825997
17.8971757065 -21.05930532 521.589485353
18.2537509486 -20.7509955215 524.787965827
23.8533097046 -13.9578957928 547.257043079
24.0831352658 -13.5575010454 550.051299659
-27.5294869219 -2.43527999253 519.688516351
-27.5654032546 -1.98790901142 520.60171598
27.5072356237 -2.67492563785 547.07765688
18.1008507773 -20.8845023873 551.821516362
17.850336935 -21.0990215445 552.179028925
2.73951613197 27.5008779894 551.66562431
CELLS 238 714
2 0 0
2 1 1
2 2 2
2 3 3
2 4 4
2 5 5
2 6 6
2 7 7
2 8 8
2 9 9
2 10 10
2 11 11
2 12 12
2 13 13
2 14 14
2 15 15
2 16 16
2 17 17
2 18 18
2 19 19
2 20 0
2 21 1
2 22 2
2 23 3
2 24 4
2 25 5
2 26 6
2 27 7
2 28 8
2 29 9
2 30 10
2 31 11
2 32 12
2 33 13
2 34 14
2 35 15
2 36 16
2 37 17
2 38 18
2 39 19
2 40 20
2 41 21
2 42 22
2 43 23
2 44 24
2 45 25
2 46 26
2 47 27
2 48 28
2 49 29
2 50 30
2 51 31
2 52 32
2 53 33
2 54 34
2 55 35
2 56 36
2 57 37
2 58 38
2 59 39
2 60 40
2 61 41
2 62 42
2 63 43
2 64 44
2 65 45
2 66 46
2 67 47
2 68 48
2 69 49
2 70 50
2 71 51
2 72 52
2 73 53
2 74 54
2 75 55
2 76 56
2 77 57
2 78 58
2 79 59
2 80 60
2 81 60
2 82 61
2 83 61
2 84 62
2 85 62
2 86 63
2 87 63
2 88 64
2 89 64
2 90 65
2 91 65
2 92 66
2 93 66
2 94 67
2 95 67
2 96 68
2 97 68
2 98 69
2 99 69
2 100 70
2 101 70
2 102 71
2 103 71
2 104 72
2 105 72
2 106 73
2 107 73
2 108 74
2 109 74
2 110 75
2 111 75
2 112 76
2 113 76
2 114 77
2 115 77
2 116 78
2 117 78
2 118 79
2 119 119
2 120 120
2 121 121
2 122 122
2 123 123
2 124 124
2 125 125
2 126 126
2 127 127
2 128 128
2 129 129
2 130 130
2 131 131
2 132 132
2 133 133
2 134 134
2 135 135
2 136 136
2 137 137
2 138 138
2 139 119
2 140 120
2 141 121
2 142 122
2 143 123
2 144 124
2 145 125
2 146 126
2 147 127
2 148 128
2 149 129
2 150 130
2 151 131
2 152 132
2 153 133
2 154 134
2 155 135
2 156 136
2 157 137
2 158 138
2 159 139
2 160 140
2 161 141
2 162 142
2 163 143
2 164 144
2 165 145
2 166 146
2 167 147
2 168 148
2 169 149
2 170 150
2 171 151
2 172 152
2 173 153
2 174 154
2 175 155
2 176 156
2 177 157
2 178 158
2 179 159
2 180 160
2 181 161
2 182 162
2 183 163
2 184 164
2 185 165
2 186 166
2 187 167
2 188 168
2 189 169
2 190 170
2 191 171
2 192 172
2 193 173
2 194 174
2 195 175
2 196 176
2 197 177
2 198 178
2 199 179
2 200 180
2 201 180
2 202 181
2 203 182
2 204 182
2 205 183
2 206 183
2 207 184
2 208 184
2 209 185
2 210 185
2 211 186
2 212 187
2 213 187
2 214 188
2 215 188
2 216 189
2 217 189
2 218 190
2 219 190
2 220 191
2 221 191
2 222 192
2 223 193
2 224 194
2 225 194
2 226 195
2 227 195
2 228 196
2 229 196
2 230 197
2 231 197
2 232 198
2 233 198
2 234 199
2 235 200
2 236 201
2 237 202
CELL_TYPES 238
3
3
3
3
3
3
3
3
3
3
3
3
3
3
3
3
3
3
3
3
3
3
3
3
3
3
3
3
3
3
3
3
3
3
3
3
3
3
3
3
3
3
3
3
3
3
3
3
3
3
3
3
3
3
3
3
3
3
3
3
3
3
3
3
3
3
3
3
3
3
3
3
3
3
3
3
3
3
3
3
3
3
3
3
3
3
3
3
3
3
3
3
3
3
3
3
3
3
3
3
3
3
3
3
3
3
3
3
3
3
3
3
3
3
3
3
3
3
3
3
3
3
3
3
3
3
3
3
3
3
3
3
3
3
3
3
3
3
3
3
3
3
3
3
3
3
3
3
3
3
3
3
3
3
3
3
3
3
3
3
3
3
3
3
3
3
3
3
3
3
3
3
3
3
3
3
3
3
3
3
3
3
3
3
3
3
3
3
3
3
3
3
3
3
3
3
3
3
3
3
3
3
3
3
3
3
3
3
3
3
3
3
3
3
3
3
3
3
3
3
3
3
3
3
3
3
3
3
3
3
3
3
3
3
3
3
3
3
CELL_DATA 238
SCALARS cell_scalars int 1
LOOKUP_TABLE default
0
0
0
0
0
0
0
0
0
0
0
0
0
0
0
0
0
0
0
0
0
0
0
0
0
0
0
0
0
0
0
0
0
0
0
0
0
0
0
0
0
0
0
0
0
0
0
0
0
0
0
0
0
0
0
0
0
0
0
0
0
0
0
0
0
0
0
0
0
0
0
0
0
0
0
0
0
0
0
0
0
0
0
0
0
0
0
0
0
0
0
0
0
0
0
0
0
0
0
0
0
0
0
0
0
0
0
0
0
0
0
0
0
0
0
0
0
0
0
1
1
1
1
1
1
1
1
1
1
1
1
1
1
1
1
1
1
1
1
1
1
1
1
1
1
1
1
1
1
1
1
1
1
1
1
1
1
1
1
1
1
1
1
1
1
1
1
1
1
1
1
1
1
1
1
1
1
1
1
1
1
1
1
1
1
1
1
1
1
1
1
1
1
1
1
1
1
1
1
1
1
1
1
1
1
1
1
1
1
1
1
1
1
1
1
1
1
1
1
1
1
1
1
1
1
1
1
1
1
1
1
1
1
1
1
1
1
1
