# vtk DataFile Version 3.0
20 Cells
ASCII
DATASET UNSTRUCTURED_GRID
POINTS 40 FLOAT
15.7538308084 -46.6320791443 -20.0945579447
-25.1448529941 -3.99003266785 -46.966520019
22.2807481191 -7.62785666962 -6.61303050245
7.49056517112 38.0875626948 -17.472948264
-32.4509070704 2.97064114085 -47.2151779939
-0.997004595558 -4.00331899027 -8.09806080553
17.9525725092 29.5471290013 -49.2406686314
6.02060029081 -23.7748272566 -7.60596130516
-19.100418537 -31.1970503187 -46.1024722435
-15.0563445851 -9.49353517202 -2.57902382198
7.49955536693 -22.1590759733 -45.2267524589
7.53253401239 36.1738024233 -4.91768700535
-37.2156644531 -14.3262912725 -34.1900510562
-4.6482336565 15.805813017 -4.42636868522
-7.70583341458 -31.646435969 -45.7919429992
-27.004033586 -19.4870797763 -46.4987902097
-0.740912132139 -1.7717928824 -33.3827949669
-5.2556688347 18.134488814 -10.7134864054
7.11096053149 -7.0858358307 -38.4827402639
1.1466870299 5.28601386594 -4.9260076966
-12.0888200627 38.9524088775 485.676988526
19.0902342023 -25.9692247992 495.434746078
-28.6975800391 35.169459189 454.6445477
13.9108705705 -9.38206578761 476.928717592
1.5231402525 2.21688585901 478.490889128
-9.87044702743 21.8801055087 498.366216491
-12.9818715494 -18.8222631236 475.347501667
29.5099286338 30.9217790334 472.047654695
-14.5905705757 0.787804923197 455.476993036
-1.83920834928 1.30679872091 486.329108186
21.284774272 22.0358928324 459.475262424
-9.02266120439 -14.7593139091 494.252141589
39.0451410171 -14.6806138531 496.012000232
7.23868915069 -22.2499953847 495.115377273
25.6204096414 -25.3577975732 476.741836594
22.2025929044 28.3608751622 497.27823364
29.6971994975 29.2513551453 472.016733067
3.12223879218 0.140845682089 483.850348568
-11.7500695685 -10.2246960218 468.813399935
-17.1031899106 0.320181992454 468.07858697
CELLS 40 120
2 0 0
2 1 1
2 2 2
2 3 3
2 4 4
2 5 5
2 6 6
2 7 7
2 8 8
2 9 9
2 10 10
2 11 11
2 12 12
2 13 13
2 14 14
2 15 15
2 16 16
2 17 17
2 18 18
2 19 19
2 20 20
2 21 21
2 22 22
2 23 23
2 24 24
2 25 25
2 26 26
2 27 27
2 28 28
2 29 29
2 30 30
2 31 31
2 32 32
2 33 33
2 34 34
2 35 35
2 36 36
2 37 37
2 38 38
2 39 39
CELL_TYPES 40
3
3
3
3
3
3
3
3
3
3
3
3
3
3
3
3
3
3
3
3
3
3
3
3
3
3
3
3
3
3
3
3
3
3
3
3
3
3
3
3
CELL_DATA 40
SCALARS cell_scalars int 1
LOOKUP_TABLE default
0
0
0
0
0
0
0
0
0
0
0
0
0
0
0
0
0
0
0
0
1
1
1
1
1
1
1
1
1
1
1
1
1
1
1
1
1
1
1
1
