# vtk DataFile Version 3.0
20 Cells
ASCII
DATASET UNSTRUCTURED_GRID
POINTS 160 FLOAT
15.7538308084 -46.6320791443 -20.0945579447
-25.1448529941 -3.99003266785 -46.966520019
22.2807481191 -7.62785666962 -6.61303050245
7.49056517112 38.0875626948 -17.472948264
-32.4509070704 2.97064114085 -47.2151779939
-0.997004595558 -4.00331899027 -8.09806080553
17.9525725092 29.5471290013 -49.2406686314
6.02060029081 -23.7748272566 -7.60596130516
-19.100418537 -31.1970503187 -46.1024722435
-15.0563445851 -9.49353517202 -2.57902382198
7.49955536693 -22.1590759733 -45.2267524589
7.53253401239 36.1738024233 -4.91768700535
-37.2156644531 -14.3262912725 -34.1900510562
-4.6482336565 15.805813017 -4.42636868522
-7.70583341458 -31.646435969 -45.7919429992
-27.004033586 -19.4870797763 -46.4987902097
-0.740912132139 -1.7717928824 -33.3827949669
-5.2556688347 18.134488814 -10.7134864054
7.11096053149 -7.0858358307 -38.4827402639
1.1466870299 5.28601386594 -4.9260076966
-6.77230181924 48.7028440758 -4.57422144658
16.2658027133 19.7930072781 -30.5330204727
-16.93293542 14.3405313235 8.72208538782
-24.0646106848 -32.3259906631 -2.21072654692
21.732591504 -25.6221671049 -32.2832776851
3.2004623955 1.81894145405 6.79999780938
-30.3331470894 -18.8111489681 -34.0024139811
-18.7573311258 16.6556782868 8.69865718427
-13.292524285 32.7078066257 -29.4591169147
-16.61487302 -9.17170003484 9.92916876717
-22.7157442769 3.43514987599 -28.4244199989
-11.0563986935 34.7432072236 8.16207994028
12.556203508 -39.2283966293 -20.110577238
-7.8495246422 14.3794095774 8.35366115334
23.4278960121 22.9365703182 -30.641125007
-15.7064691351 29.4798683536 -29.355598893
-0.174201896165 -0.808213997673 -20.6326438434
-7.75574627175 -17.6714257737 4.29881556747
6.20897166396 7.35253706395 -24.263217733
-4.98678356534 4.29862180988 8.71335674586
-45.7720124303 20.1226955968 9.0105821079
9.28252015782 24.4570010501 -17.6415085166
1.50257863484 -20.7959492686 23.6340729885
2.58284480162 -40.8051104878 11.0587870477
-4.64808247441 34.2255698933 -17.1437780947
3.58913165415 0.596333808923 19.0142017415
-37.2501462298 5.96355235134 -22.1498962079
21.1776268951 13.3592884371 25.6955153722
26.7167295217 23.0075927146 -11.8554285717
-20.7520228554 -4.99574063886 22.2273885197
-16.8265691634 -15.5295387841 -14.96262976
36.5887987848 -0.85216092721 25.1094552252
41.8769141592 4.80461923903 -6.16895285821
-6.26865326622 -14.1116666143 23.1439098618
-5.59353200575 -31.0201482586 -14.3155691598
-29.9152567593 12.342952239 -16.0992819404
-1.69921896708 0.706589995785 -6.67726520871
20.1974325969 -0.594145701132 18.8201475101
-3.66381333172 9.63710378003 -10.6322718836
6.73051679895 1.91985576749 25.4106082718
-35.8003699465 34.9046345303 21.2184183623
-18.2991598438 19.4687784465 -3.95794948093
-1.1874574847 18.6448676228 39.3335104378
6.36088652987 -40.8713462908 23.7163382476
-24.3430812325 26.2941903592 -3.96550285282
-4.19612904668 0.863769279666 34.3545058979
-7.28450918783 -39.8395194206 -8.03483018315
24.8913891087 -0.503326296583 37.6788936981
-34.8485121278 -6.19799644139 3.31760753267
22.8160207714 -1.43286543144 37.6363933622
21.627020213 -2.45856622477 -0.113194361212
-33.4392727806 -16.5830846116 41.3010799124
7.1863739951 43.1066538702 7.68878935628
5.34468343013 -13.2478704795 36.5117814582
29.5283323975 0.9373338495 0.0317328859455
13.6898205953 26.8442368145 1.09920264089
2.70806142246 2.91472546242 10.2469143214
-15.0611500917 -13.4252680361 35.2855536187
11.9184847768 1.90442623133 6.44163347676
6.67248539981 -0.758383296556 37.5859392123
-12.0888200627 38.9524088775 485.676988526
19.0902342023 -25.9692247992 495.434746078
-28.6975800391 35.169459189 454.6445477
13.9108705705 -9.38206578761 476.928717592
1.5231402525 2.21688585901 478.490889128
-9.87044702743 21.8801055087 498.366216491
-12.9818715494 -18.8222631236 475.347501667
29.5099286338 30.9217790334 472.047654695
-14.5905705757 0.787804923197 455.476993036
-1.83920834928 1.30679872091 486.329108186
21.284774272 22.0358928324 459.475262424
-9.02266120439 -14.7593139091 494.252141589
39.0451410171 -14.6806138531 496.012000232
7.23868915069 -22.2499953847 495.115377273
25.6204096414 -25.3577975732 476.741836594
22.2025929044 28.3608751622 497.27823364
29.6971994975 29.2513551453 472.016733067
3.12223879218 0.140845682089 483.850348568
-11.7500695685 -10.2246960218 468.813399935
-17.1031899106 0.320181992454 468.07858697
-40.9577029917 -5.08659082573 468.220864053
-9.46966562943 30.7593589387 479.39153444
-9.18246855846 43.5182070568 441.601720384
11.5088519074 11.2248718511 459.44543466
2.87156948783 -3.03299510439 464.142982253
4.24839247908 22.909216551 485.192703277
-10.6943379768 21.0321160344 460.713729589
-33.429620099 24.2086990757 454.9041714
5.71764759011 14.1465603233 441.009669839
1.78104386282 2.9418666587 472.265304335
14.0654642478 -27.0056461969 445.015536198
-2.47962050032 -16.7598541402 482.087587864
-7.91278493064 42.4538821884 479.277150685
-22.5316249317 -1.59024228929 480.734137392
-35.0801100414 -7.61899615647 462.027987092
34.7464251354 -6.78405829902 483.612449568
-42.3750197441 3.05659089171 455.458927578
1.26415058356 -2.11872240141 470.206059509
-3.19980505884 -15.6594600595 456.900168969
-14.2024571181 7.44987449412 455.047841949
3.43166929255 41.6266064537 453.877885121
-0.762145822367 -31.9689342792 463.361080718
6.39622358417 41.638844604 428.674976696
-7.58333666103 14.2853221791 441.881788318
-3.09995069969 3.03978567974 448.47215027
11.1134939099 19.3290031106 472.287886637
4.75860582764 22.8868388879 447.471954997
-38.2565616079 13.8893787109 442.616303419
14.503888017 8.39590510672 427.781340749
-3.11895360433 -1.62358928912 456.010891438
19.309150903 21.3342347975 428.09178355
-13.9452962492 8.5687246613 467.546326636
42.4038631216 -8.4549330306 464.758903172
-19.719863341 12.0982635482 467.547013812
-28.8135753214 -20.0069933789 449.854680137
0.410399451105 35.3709036428 466.514906837
5.39273809166 42.2531998152 441.26682502
-3.19122137171 -0.633245853584 455.726823817
6.28356681784 -16.1534430909 444.906341694
11.5761088299 -10.1730976315 439.101992696
36.8539845783 21.941047822 440.359965433
-26.1544564473 16.1394221624 448.694864876
2.82634894848 -39.432883124 413.190986511
1.85615346501 15.9899829151 428.711832179
-1.83523851036 -3.33291210665 431.465654556
14.6044059107 -17.1894862773 457.806000273
7.43042813937 -21.6525881562 432.299563405
-22.0586681887 -33.547366708 425.104148463
18.0094819556 -1.661142118 414.598253436
2.56766312989 0.590486804068 440.049011884
-26.5884117894 -8.15575357471 411.846267203
-12.0007520829 8.52063804005 454.913523114
-33.0303978257 27.9164346461 448.546063801
-11.0183541949 20.0302404928 454.463047653
31.3022297655 -13.4865495127 433.132971434
-35.6527006785 0.887455249143 449.222862933
17.0663481811 -38.2616408748 426.105363217
5.03765583995 -1.2645916453 439.577025736
-8.34225656281 16.7901759625 429.288524403
9.74754854097 -12.4857908223 426.348660531
CELLS 160 480
2 0 0
2 1 1
2 2 2
2 3 3
2 4 4
2 5 5
2 6 6
2 7 7
2 8 8
2 9 9
2 10 10
2 11 11
2 12 12
2 13 13
2 14 14
2 15 15
2 16 16
2 17 17
2 18 18
2 19 19
2 20 0
2 21 1
2 22 2
2 23 3
2 24 4
2 25 5
2 26 6
2 27 7
2 28 8
2 29 9
2 30 10
2 31 11
2 32 12
2 33 13
2 34 14
2 35 15
2 36 16
2 37 17
2 38 18
2 39 19
2 40 20
2 41 21
2 42 22
2 43 23
2 44 24
2 45 25
2 46 26
2 47 27
2 48 28
2 49 29
2 50 30
2 51 31
2 52 32
2 53 33
2 54 34
2 55 35
2 56 36
2 57 37
2 58 38
2 59 39
2 60 40
2 61 41
2 62 42
2 63 43
2 64 44
2 65 45
2 66 46
2 67 47
2 68 48
2 69 49
2 70 50
2 71 51
2 72 52
2 73 53
2 74 54
2 75 55
2 76 56
2 77 57
2 78 58
2 79 59
2 80 80
2 81 81
2 82 82
2 83 83
2 84 84
2 85 85
2 86 86
2 87 87
2 88 88
2 89 89
2 90 90
2 91 91
2 92 92
2 93 93
2 94 94
2 95 95
2 96 96
2 97 97
2 98 98
2 99 99
2 100 80
2 101 81
2 102 82
2 103 83
2 104 84
2 105 85
2 106 86
2 107 87
2 108 88
2 109 89
2 110 90
2 111 91
2 112 92
2 113 93
2 114 94
2 115 95
2 116 96
2 117 97
2 118 98
2 119 99
2 120 100
2 121 101
2 122 102
2 123 103
2 124 104
2 125 105
2 126 106
2 127 107
2 128 108
2 129 109
2 130 110
2 131 111
2 132 112
2 133 113
2 134 114
2 135 115
2 136 116
2 137 117
2 138 118
2 139 119
2 140 120
2 141 121
2 142 122
2 143 123
2 144 124
2 145 125
2 146 126
2 147 127
2 148 128
2 149 129
2 150 130
2 151 131
2 152 132
2 153 133
2 154 134
2 155 135
2 156 136
2 157 137
2 158 138
2 159 139
CELL_TYPES 160
3
3
3
3
3
3
3
3
3
3
3
3
3
3
3
3
3
3
3
3
3
3
3
3
3
3
3
3
3
3
3
3
3
3
3
3
3
3
3
3
3
3
3
3
3
3
3
3
3
3
3
3
3
3
3
3
3
3
3
3
3
3
3
3
3
3
3
3
3
3
3
3
3
3
3
3
3
3
3
3
3
3
3
3
3
3
3
3
3
3
3
3
3
3
3
3
3
3
3
3
3
3
3
3
3
3
3
3
3
3
3
3
3
3
3
3
3
3
3
3
3
3
3
3
3
3
3
3
3
3
3
3
3
3
3
3
3
3
3
3
3
3
3
3
3
3
3
3
3
3
3
3
3
3
3
3
3
3
3
3
CELL_DATA 160
SCALARS cell_scalars int 1
LOOKUP_TABLE default
0
0
0
0
0
0
0
0
0
0
0
0
0
0
0
0
0
0
0
0
0
0
0
0
0
0
0
0
0
0
0
0
0
0
0
0
0
0
0
0
0
0
0
0
0
0
0
0
0
0
0
0
0
0
0
0
0
0
0
0
0
0
0
0
0
0
0
0
0
0
0
0
0
0
0
0
0
0
0
0
1
1
1
1
1
1
1
1
1
1
1
1
1
1
1
1
1
1
1
1
1
1
1
1
1
1
1
1
1
1
1
1
1
1
1
1
1
1
1
1
1
1
1
1
1
1
1
1
1
1
1
1
1
1
1
1
1
1
1
1
1
1
1
1
1
1
1
1
1
1
1
1
1
1
1
1
1
1
1
1
