# vtk DataFile Version 3.0
20 Cells
ASCII
DATASET UNSTRUCTURED_GRID
POINTS 80 FLOAT
15.7538308084 -46.6320791443 -20.0945579447
-25.1448529941 -3.99003266785 -46.966520019
22.2807481191 -7.62785666962 -6.61303050245
7.49056517112 38.0875626948 -17.472948264
-32.4509070704 2.97064114085 -47.2151779939
-0.997004595558 -4.00331899027 -8.09806080553
17.9525725092 29.5471290013 -49.2406686314
6.02060029081 -23.7748272566 -7.60596130516
-19.100418537 -31.1970503187 -46.1024722435
-15.0563445851 -9.49353517202 -2.57902382198
7.49955536693 -22.1590759733 -45.2267524589
7.53253401239 36.1738024233 -4.91768700535
-37.2156644531 -14.3262912725 -34.1900510562
-4.6482336565 15.805813017 -4.42636868522
-7.70583341458 -31.646435969 -45.7919429992
-27.004033586 -19.4870797763 -46.4987902097
-0.740912132139 -1.7717928824 -33.3827949669
-5.2556688347 18.134488814 -10.7134864054
7.11096053149 -7.0858358307 -38.4827402639
1.1466870299 5.28601386594 -4.9260076966
-6.77230181924 48.7028440758 -4.57422144658
16.2658027133 19.7930072781 -30.5330204727
-16.93293542 14.3405313235 8.72208538782
-24.0646106848 -32.3259906631 -2.21072654692
21.732591504 -25.6221671049 -32.2832776851
3.2004623955 1.81894145405 6.79999780938
-30.3331470894 -18.8111489681 -34.0024139811
-18.7573311258 16.6556782868 8.69865718427
-13.292524285 32.7078066257 -29.4591169147
-16.61487302 -9.17170003484 9.92916876717
-22.7157442769 3.43514987599 -28.4244199989
-11.0563986935 34.7432072236 8.16207994028
12.556203508 -39.2283966293 -20.110577238
-7.8495246422 14.3794095774 8.35366115334
23.4278960121 22.9365703182 -30.641125007
-15.7064691351 29.4798683536 -29.355598893
-0.174201896165 -0.808213997673 -20.6326438434
-7.75574627175 -17.6714257737 4.29881556747
6.20897166396 7.35253706395 -24.263217733
-4.98678356534 4.29862180988 8.71335674586
-12.0888200627 38.9524088775 485.676988526
19.0902342023 -25.9692247992 495.434746078
-28.6975800391 35.169459189 454.6445477
13.9108705705 -9.38206578761 476.928717592
1.5231402525 2.21688585901 478.490889128
-9.87044702743 21.8801055087 498.366216491
-12.9818715494 -18.8222631236 475.347501667
29.5099286338 30.9217790334 472.047654695
-14.5905705757 0.787804923197 455.476993036
-1.83920834928 1.30679872091 486.329108186
21.284774272 22.0358928324 459.475262424
-9.02266120439 -14.7593139091 494.252141589
39.0451410171 -14.6806138531 496.012000232
7.23868915069 -22.2499953847 495.115377273
25.6204096414 -25.3577975732 476.741836594
22.2025929044 28.3608751622 497.27823364
29.6971994975 29.2513551453 472.016733067
3.12223879218 0.140845682089 483.850348568
-11.7500695685 -10.2246960218 468.813399935
-17.1031899106 0.320181992454 468.07858697
-40.9577029917 -5.08659082573 468.220864053
-9.46966562943 30.7593589387 479.39153444
-9.18246855846 43.5182070568 441.601720384
11.5088519074 11.2248718511 459.44543466
2.87156948783 -3.03299510439 464.142982253
4.24839247908 22.909216551 485.192703277
-10.6943379768 21.0321160344 460.713729589
-33.429620099 24.2086990757 454.9041714
5.71764759011 14.1465603233 441.009669839
1.78104386282 2.9418666587 472.265304335
14.0654642478 -27.0056461969 445.015536198
-2.47962050032 -16.7598541402 482.087587864
-7.91278493064 42.4538821884 479.277150685
-22.5316249317 -1.59024228929 480.734137392
-35.0801100414 -7.61899615647 462.027987092
34.7464251354 -6.78405829902 483.612449568
-42.3750197441 3.05659089171 455.458927578
1.26415058356 -2.11872240141 470.206059509
-3.19980505884 -15.6594600595 456.900168969
-14.2024571181 7.44987449412 455.047841949
CELLS 80 240
2 0 0
2 1 1
2 2 2
2 3 3
2 4 4
2 5 5
2 6 6
2 7 7
2 8 8
2 9 9
2 10 10
2 11 11
2 12 12
2 13 13
2 14 14
2 15 15
2 16 16
2 17 17
2 18 18
2 19 19
2 20 0
2 21 1
2 22 2
2 23 3
2 24 4
2 25 5
2 26 6
2 27 7
2 28 8
2 29 9
2 30 10
2 31 11
2 32 12
2 33 13
2 34 14
2 35 15
2 36 16
2 37 17
2 38 18
2 39 19
2 40 40
2 41 41
2 42 42
2 43 43
2 44 44
2 45 45
2 46 46
2 47 47
2 48 48
2 49 49
2 50 50
2 51 51
2 52 52
2 53 53
2 54 54
2 55 55
2 56 56
2 57 57
2 58 58
2 59 59
2 60 40
2 61 41
2 62 42
2 63 43
2 64 44
2 65 45
2 66 46
2 67 47
2 68 48
2 69 49
2 70 50
2 71 51
2 72 52
2 73 53
2 74 54
2 75 55
2 76 56
2 77 57
2 78 58
2 79 59
CELL_TYPES 80
3
3
3
3
3
3
3
3
3
3
3
3
3
3
3
3
3
3
3
3
3
3
3
3
3
3
3
3
3
3
3
3
3
3
3
3
3
3
3
3
3
3
3
3
3
3
3
3
3
3
3
3
3
3
3
3
3
3
3
3
3
3
3
3
3
3
3
3
3
3
3
3
3
3
3
3
3
3
3
3
CELL_DATA 80
SCALARS cell_scalars int 1
LOOKUP_TABLE default
0
0
0
0
0
0
0
0
0
0
0
0
0
0
0
0
0
0
0
0
0
0
0
0
0
0
0
0
0
0
0
0
0
0
0
0
0
0
0
0
1
1
1
1
1
1
1
1
1
1
1
1
1
1
1
1
1
1
1
1
1
1
1
1
1
1
1
1
1
1
1
1
1
1
1
1
1
1
1
1
